
    -----------------------------------------------------------------------
          Psi4: An Open-Source Ab Initio Electronic Structure Package
                               Psi4 1.2a1.dev508 

                         Git: Rev {HEAD} 862f0c5 


    R. M. Parrish, L. A. Burns, D. G. A. Smith, A. C. Simmonett,
    A. E. DePrince III, E. G. Hohenstein, U. Bozkaya, A. Yu. Sokolov,
    R. Di Remigio, R. M. Richard, J. F. Gonthier, A. M. James,
    H. R. McAlexander, A. Kumar, M. Saitow, X. Wang, B. P. Pritchard,
    P. Verma, H. F. Schaefer III, K. Patkowski, R. A. King, E. F. Valeev,
    F. A. Evangelista, J. M. Turney, T. D. Crawford, and C. D. Sherrill,
    J. Chem. Theory Comput. 13(7) pp 3185--3197 (2017).
    (doi: 10.1021/acs.jctc.7b00174)

    -----------------------------------------------------------------------


    Psi4 started on: Monday, 28 May 2018 07:12PM

    Process ID:  18310
    PSIDATADIR: /Users/shuhe.wang/src/psi4_debug_install/share/psi4
    Memory:     500.0 MiB
    Threads:    1
    
  ==> Input File <==

--------------------------------------------------------------------------
sys.path.insert(0, './..')
import dsrgpt2_plug


molecule h2o {
0 1
O
H 1 r
H 1 r 2 a

r=0.98944
a=100.047
}

pert = 0.001
lambdas = [pert, -pert, 2.0*pert, -2.0*pert]


set {
    basis        sto-3g
    e_convergence   10
    scf_type pk
}


energies = []
for l in lambdas:
    set perturb_h true
    set perturb_with dipole
    set perturb_dipole [0, 0, $l]
    energies.append(energy('dsrgpt2_plug'))

# Now use 3- and 5-point finite difference formulae to compute the dipole
dm_z_3point = (energies[0] - energies[1]) / (2.0*pert)
dm_z_5point = (8.0*energies[0] - 8.0*energies[1] - energies[2] + energies[3]) / (12.0*pert)

set perturb_h false
# Compute the analytic dipoles, for comparison
e,wfn = energy('scf', return_wfn=True)
oeprop(wfn, "MULTIPOLES(1)")
analytic = get_variable("DIPOLE Z")

# Tabulate the results of the energy computation
for val in range(len(lambdas)):
    print_out("Perturbation strength = %7.4f, computed energy = %16.10f\n" % (lambdas[val], energies[val]))

# The a.u. to Debye conversion factor is automatically available in Psithon as psi_dipmom_au2debye
print_out("Total dipoles\n")
print_out("3 Point formula: mu(z) = %10.6f ea0, %10.6f Debye\n" % (dm_z_3point, dm_z_3point*psi_dipmom_au2debye))
print_out("5 Point formula: mu(z) = %10.6f ea0, %10.6f Debye\n" % (dm_z_5point, dm_z_5point*psi_dipmom_au2debye))
--------------------------------------------------------------------------
/Users/shuhe.wang/src/plug/dsrgpt2_plug/dsrgpt2_plug.so loaded.

*** tstart() called on Shuhe.Wang
*** at Mon May 28 19:12:45 2018

   => Loading Basis Set <=

    Name: STO-3G
    Role: ORBITAL
    Keyword: BASIS
    atoms 1   entry O          line    81 file /Users/shuhe.wang/src/psi4_debug_install/share/psi4/basis/sto-3g.gbs 
    atoms 2-3 entry H          line    19 file /Users/shuhe.wang/src/psi4_debug_install/share/psi4/basis/sto-3g.gbs 


         ---------------------------------------------------------
                                   SCF
            by Justin Turney, Rob Parrish, Andy Simmonett
                             and Daniel Smith
                              RHF Reference
                        1 Threads,    500 MiB Core
         ---------------------------------------------------------

  ==> Geometry <==

    Molecular point group: c2v
    Full point group: C2v

    Geometry (in Angstrom), charge = 0, multiplicity = 1:

       Center              X                  Y                   Z               Mass       
    ------------   -----------------  -----------------  -----------------  -----------------
           O          0.000000000000     0.000000000000    -0.071143036192    15.994914619560
           H          0.000000000000    -0.758215806856     0.564545805801     1.007825032070
           H          0.000000000000     0.758215806856     0.564545805801     1.007825032070

  Running in c2v symmetry.

  Rotational constants: A =     23.30438  B =     14.54775  C =      8.95660 [cm^-1]
  Rotational constants: A = 698647.78356  B = 436130.43148  C = 268511.99226 [MHz]
  Nuclear repulsion =    8.907219641558497

  Charge       = 0
  Multiplicity = 1
  Electrons    = 10
  Nalpha       = 5
  Nbeta        = 5

  ==> Algorithm <==

  SCF Algorithm Type is PK.
  DIIS enabled.
  MOM disabled.
  Fractional occupation disabled.
  Guess Type is SAD.
  Energy threshold   = 1.00e-10
  Density threshold  = 1.00e-08
  Integral threshold = 0.00e+00

  ==> Primary Basis <==

  Basis Set: STO-3G
    Blend: STO-3G
    Number of shells: 5
    Number of basis function: 7
    Number of Cartesian functions: 7
    Spherical Harmonics?: true
    Max angular momentum: 1

  ==> Pre-Iterations <==

   -------------------------------------------------------
    Irrep   Nso     Nmo     Nalpha   Nbeta   Ndocc  Nsocc
   -------------------------------------------------------
     A1         4       4       0       0       0       0
     A2         0       0       0       0       0       0
     B1         1       1       0       0       0       0
     B2         2       2       0       0       0       0
   -------------------------------------------------------
    Total       7       7       5       5       5       0
   -------------------------------------------------------

  Perturbing V by 0.001000 mu(z).
  ==> Integral Setup <==

  Using in-core PK algorithm.
   Calculation information:
      Number of atoms:                   3
      Number of AO shells:               5
      Number of primitives:             15
      Number of atomic orbitals:         7
      Number of basis functions:         7

      Integral cutoff                 1.00e-12
      Number of threads:                 1

  Performing in-core PK
  Using 812 doubles for integral storage.
  We computed 120 shell quartets total.
  Whereas there are 120 unique shell quartets.
  ==> DiskJK: Disk-Based J/K Matrices <==

    J tasked:                  Yes
    K tasked:                  Yes
    wK tasked:                  No
    Memory (MB):               375
    Schwarz Cutoff:          1E-12

    OpenMP threads:              1
  Minimum eigenvalue in the overlap matrix is 3.6319981111E-01.
  Using Symmetric Orthogonalization.

  SCF Guess: Superposition of Atomic Densities via on-the-fly atomic UHF.

  ==> Iterations <==

                        Total Energy        Delta E     RMS |[F,P]|

   @RHF iter   0:   -74.73206294757530   -7.47321e+01   3.06685e-01 
   @RHF iter   1:   -74.91352937280789   -1.81466e-01   5.30687e-02 
   @RHF iter   2:   -74.96308805653098   -4.95587e-02   9.54572e-03 DIIS
   @RHF iter   3:   -74.96481395214232   -1.72590e-03   3.55043e-03 DIIS
   @RHF iter   4:   -74.96522704609663   -4.13094e-04   3.49214e-04 DIIS
   @RHF iter   5:   -74.96523003694089   -2.99084e-06   3.59480e-05 DIIS
   @RHF iter   6:   -74.96523006182005   -2.48792e-08   6.11946e-07 DIIS
   @RHF iter   7:   -74.96523006182591   -5.85487e-12   1.37271e-08 DIIS
   @RHF iter   8:   -74.96523006182592   -1.42109e-14   1.07398e-10 DIIS

  ==> Post-Iterations <==

    Orbital Energies (a.u.)
    -----------------------

    Doubly Occupied:                                                      

       1A1   -20.252618     2A1    -1.258168     1B2    -0.594491  
       3A1    -0.459951     1B1    -0.393092  

    Virtual:                                                              

       4A1     0.580686     2B2     0.691863  

    Final Occupation by Irrep:
             A1    A2    B1    B2 
    DOCC [     3,    0,    1,    1 ]

  Energy converged.

  @RHF Final Energy:   -74.96523006182592 with 0.000000 0.000000 0.001000 perturbation

   => Energetics <=

    Nuclear Repulsion Energy =              8.9072196415584965
    One-Electron Energy =                -121.8282602522897946
    Two-Electron Energy =                  37.9558105489053688
    Total Energy =                        -74.9652300618259346



Properties will be evaluated at   0.000000,   0.000000,   0.000000 Bohr

Properties computed using the SCF density matrix

  Nuclear Dipole Moment: (a.u.)
     X:     0.0000      Y:    -0.0000      Z:     1.0581

  Electronic Dipole Moment: (a.u.)
     X:     0.0000      Y:     0.0000      Z:    -0.3883

  Dipole Moment: (a.u.)
     X:     0.0000      Y:    -0.0000      Z:     0.6698     Total:     0.6698

  Dipole Moment: (Debye)
     X:     0.0000      Y:    -0.0000      Z:     1.7025     Total:     1.7025


*** tstop() called on Shuhe.Wang at Mon May 28 19:12:46 2018
Module time:
	user time   =       0.30 seconds =       0.01 minutes
	system time =       0.02 seconds =       0.00 minutes
	total time  =          1 seconds =       0.02 minutes
Total time:
	user time   =       0.30 seconds =       0.01 minutes
	system time =       0.02 seconds =       0.00 minutes
	total time  =          1 seconds =       0.02 minutes
 MINTS: Wrapper to libmints.
   by Justin Turney

   Calculation information:
      Number of threads:                 1
      Number of atoms:                   3
      Number of AO shells:               5
      Number of SO shells:               4
      Number of primitives:             15
      Number of atomic orbitals:         7
      Number of basis functions:         7

      Number of irreps:                  4
      Integral cutoff                 0.00e+00
      Number of functions per irrep: [   4    0    1    2 ]

  Perturbing V by 0.001000 mu(z).
 OEINTS: Overlap, kinetic, potential, dipole, and quadrupole integrals
         stored in file 35.

      Computing two-electron integrals...done
      Computed 138 non-zero two-electron integrals.
        Stored in file 33.


Reading options from the DSRGPT2_PLUG block
Calling plugin dsrgpt2_plug.so.


	Presorting SO-basis two-electron integrals.
	Sorting File: SO Ints (nn|nn) nbuckets = 1
	Transforming the one-electron integrals and constructing Fock matrices
	Starting first half-transformation.
	Sorting half-transformed integrals.
	First half integral transformation complete.
	Starting second half-transformation.
	Two-electron integral transformation complete.


    ==> Spin orbital SR_DSRG_PT2 energy <==
    RHF total energy                  -74.965230061826
    SR_PT2 correlation energy           0.301429351307
    SR_DSRG_PT2 total energy          -74.663800710519

*** tstart() called on Shuhe.Wang
*** at Mon May 28 19:12:46 2018

   => Loading Basis Set <=

    Name: STO-3G
    Role: ORBITAL
    Keyword: BASIS
    atoms 1   entry O          line    81 file /Users/shuhe.wang/src/psi4_debug_install/share/psi4/basis/sto-3g.gbs 
    atoms 2-3 entry H          line    19 file /Users/shuhe.wang/src/psi4_debug_install/share/psi4/basis/sto-3g.gbs 


         ---------------------------------------------------------
                                   SCF
            by Justin Turney, Rob Parrish, Andy Simmonett
                             and Daniel Smith
                              RHF Reference
                        1 Threads,    500 MiB Core
         ---------------------------------------------------------

  ==> Geometry <==

    Molecular point group: c2v
    Full point group: C2v

    Geometry (in Angstrom), charge = 0, multiplicity = 1:

       Center              X                  Y                   Z               Mass       
    ------------   -----------------  -----------------  -----------------  -----------------
           O          0.000000000000     0.000000000000    -0.071143036192    15.994914619560
           H          0.000000000000    -0.758215806856     0.564545805801     1.007825032070
           H          0.000000000000     0.758215806856     0.564545805801     1.007825032070

  Running in c2v symmetry.

  Rotational constants: A =     23.30438  B =     14.54775  C =      8.95660 [cm^-1]
  Rotational constants: A = 698647.78356  B = 436130.43148  C = 268511.99226 [MHz]
  Nuclear repulsion =    8.905103347383411

  Charge       = 0
  Multiplicity = 1
  Electrons    = 10
  Nalpha       = 5
  Nbeta        = 5

  ==> Algorithm <==

  SCF Algorithm Type is PK.
  DIIS enabled.
  MOM disabled.
  Fractional occupation disabled.
  Guess Type is SAD.
  Energy threshold   = 1.00e-10
  Density threshold  = 1.00e-08
  Integral threshold = 0.00e+00

  ==> Primary Basis <==

  Basis Set: STO-3G
    Blend: STO-3G
    Number of shells: 5
    Number of basis function: 7
    Number of Cartesian functions: 7
    Spherical Harmonics?: true
    Max angular momentum: 1

  ==> Pre-Iterations <==

   -------------------------------------------------------
    Irrep   Nso     Nmo     Nalpha   Nbeta   Ndocc  Nsocc
   -------------------------------------------------------
     A1         4       4       0       0       0       0
     A2         0       0       0       0       0       0
     B1         1       1       0       0       0       0
     B2         2       2       0       0       0       0
   -------------------------------------------------------
    Total       7       7       5       5       5       0
   -------------------------------------------------------

  Perturbing V by -0.001000 mu(z).
  ==> Integral Setup <==

  Using in-core PK algorithm.
   Calculation information:
      Number of atoms:                   3
      Number of AO shells:               5
      Number of primitives:             15
      Number of atomic orbitals:         7
      Number of basis functions:         7

      Integral cutoff                 1.00e-12
      Number of threads:                 1

  Performing in-core PK
  Using 812 doubles for integral storage.
  We computed 120 shell quartets total.
  Whereas there are 120 unique shell quartets.
  ==> DiskJK: Disk-Based J/K Matrices <==

    J tasked:                  Yes
    K tasked:                  Yes
    wK tasked:                  No
    Memory (MB):               375
    Schwarz Cutoff:          1E-12

    OpenMP threads:              1
  Minimum eigenvalue in the overlap matrix is 3.6319981111E-01.
  Using Symmetric Orthogonalization.

  SCF Guess: Superposition of Atomic Densities via on-the-fly atomic UHF.

  ==> Iterations <==

                        Total Energy        Delta E     RMS |[F,P]|

   @RHF iter   0:   -74.73206294757533   -7.47321e+01   3.06763e-01 
   @RHF iter   1:   -74.91486020560396   -1.82797e-01   5.31340e-02 
   @RHF iter   2:   -74.96445559414032   -4.95954e-02   9.51229e-03 DIIS
   @RHF iter   3:   -74.96616489010292   -1.70930e-03   3.52857e-03 DIIS
   @RHF iter   4:   -74.96657186422351   -4.06974e-04   3.47112e-04 DIIS
   @RHF iter   5:   -74.96657481964064   -2.95542e-06   3.55189e-05 DIIS
   @RHF iter   6:   -74.96657484387710   -2.42365e-08   6.25082e-07 DIIS
   @RHF iter   7:   -74.96657484388321   -6.11067e-12   1.21684e-08 DIIS
   @RHF iter   8:   -74.96657484388325   -4.26326e-14   1.08997e-10 DIIS

  ==> Post-Iterations <==

    Orbital Energies (a.u.)
    -----------------------

    Doubly Occupied:                                                      

       1A1   -20.250498     2A1    -1.256859     1B2    -0.593259  
       3A1    -0.459408     1B1    -0.392113  

    Virtual:                                                              

       4A1     0.582784     2B2     0.693522  

    Final Occupation by Irrep:
             A1    A2    B1    B2 
    DOCC [     3,    0,    1,    1 ]

  Energy converged.

  @RHF Final Energy:   -74.96657484388325 with 0.000000 0.000000 -0.001000 perturbation

   => Energetics <=

    Nuclear Repulsion Energy =              8.9051033473834114
    One-Electron Energy =                -121.8390825330706093
    Two-Electron Energy =                  37.9674043418039417
    Total Energy =                        -74.9665748438832509



Properties will be evaluated at   0.000000,   0.000000,   0.000000 Bohr

Properties computed using the SCF density matrix

  Nuclear Dipole Moment: (a.u.)
     X:     0.0000      Y:    -0.0000      Z:     1.0581

  Electronic Dipole Moment: (a.u.)
     X:     0.0000      Y:     0.0000      Z:    -0.3832

  Dipole Moment: (a.u.)
     X:     0.0000      Y:    -0.0000      Z:     0.6750     Total:     0.6750

  Dipole Moment: (Debye)
     X:     0.0000      Y:    -0.0000      Z:     1.7156     Total:     1.7156


*** tstop() called on Shuhe.Wang at Mon May 28 19:12:46 2018
Module time:
	user time   =       0.27 seconds =       0.00 minutes
	system time =       0.02 seconds =       0.00 minutes
	total time  =          0 seconds =       0.00 minutes
Total time:
	user time   =       0.61 seconds =       0.01 minutes
	system time =       0.05 seconds =       0.00 minutes
	total time  =          1 seconds =       0.02 minutes
 MINTS: Wrapper to libmints.
   by Justin Turney

   Calculation information:
      Number of threads:                 1
      Number of atoms:                   3
      Number of AO shells:               5
      Number of SO shells:               4
      Number of primitives:             15
      Number of atomic orbitals:         7
      Number of basis functions:         7

      Number of irreps:                  4
      Integral cutoff                 0.00e+00
      Number of functions per irrep: [   4    0    1    2 ]

  Perturbing V by -0.001000 mu(z).
 OEINTS: Overlap, kinetic, potential, dipole, and quadrupole integrals
         stored in file 35.

      Computing two-electron integrals...done
      Computed 138 non-zero two-electron integrals.
        Stored in file 33.


Reading options from the DSRGPT2_PLUG block
Calling plugin dsrgpt2_plug.so.


	Presorting SO-basis two-electron integrals.
	Sorting File: SO Ints (nn|nn) nbuckets = 1
	Transforming the one-electron integrals and constructing Fock matrices
	Starting first half-transformation.
	Sorting half-transformed integrals.
	First half integral transformation complete.
	Starting second half-transformation.
	Two-electron integral transformation complete.


    ==> Spin orbital SR_DSRG_PT2 energy <==
    RHF total energy                  -74.966574843883
    SR_PT2 correlation energy           0.304782135425
    SR_DSRG_PT2 total energy          -74.661792708458

*** tstart() called on Shuhe.Wang
*** at Mon May 28 19:12:46 2018

   => Loading Basis Set <=

    Name: STO-3G
    Role: ORBITAL
    Keyword: BASIS
    atoms 1   entry O          line    81 file /Users/shuhe.wang/src/psi4_debug_install/share/psi4/basis/sto-3g.gbs 
    atoms 2-3 entry H          line    19 file /Users/shuhe.wang/src/psi4_debug_install/share/psi4/basis/sto-3g.gbs 


         ---------------------------------------------------------
                                   SCF
            by Justin Turney, Rob Parrish, Andy Simmonett
                             and Daniel Smith
                              RHF Reference
                        1 Threads,    500 MiB Core
         ---------------------------------------------------------

  ==> Geometry <==

    Molecular point group: c2v
    Full point group: C2v

    Geometry (in Angstrom), charge = 0, multiplicity = 1:

       Center              X                  Y                   Z               Mass       
    ------------   -----------------  -----------------  -----------------  -----------------
           O          0.000000000000     0.000000000000    -0.071143036192    15.994914619560
           H          0.000000000000    -0.758215806856     0.564545805801     1.007825032070
           H          0.000000000000     0.758215806856     0.564545805801     1.007825032070

  Running in c2v symmetry.

  Rotational constants: A =     23.30438  B =     14.54775  C =      8.95660 [cm^-1]
  Rotational constants: A = 698647.78356  B = 436130.43148  C = 268511.99226 [MHz]
  Nuclear repulsion =    8.908277788646037

  Charge       = 0
  Multiplicity = 1
  Electrons    = 10
  Nalpha       = 5
  Nbeta        = 5

  ==> Algorithm <==

  SCF Algorithm Type is PK.
  DIIS enabled.
  MOM disabled.
  Fractional occupation disabled.
  Guess Type is SAD.
  Energy threshold   = 1.00e-10
  Density threshold  = 1.00e-08
  Integral threshold = 0.00e+00

  ==> Primary Basis <==

  Basis Set: STO-3G
    Blend: STO-3G
    Number of shells: 5
    Number of basis function: 7
    Number of Cartesian functions: 7
    Spherical Harmonics?: true
    Max angular momentum: 1

  ==> Pre-Iterations <==

   -------------------------------------------------------
    Irrep   Nso     Nmo     Nalpha   Nbeta   Ndocc  Nsocc
   -------------------------------------------------------
     A1         4       4       0       0       0       0
     A2         0       0       0       0       0       0
     B1         1       1       0       0       0       0
     B2         2       2       0       0       0       0
   -------------------------------------------------------
    Total       7       7       5       5       5       0
   -------------------------------------------------------

  Perturbing V by 0.002000 mu(z).
  ==> Integral Setup <==

  Using in-core PK algorithm.
   Calculation information:
      Number of atoms:                   3
      Number of AO shells:               5
      Number of primitives:             15
      Number of atomic orbitals:         7
      Number of basis functions:         7

      Integral cutoff                 1.00e-12
      Number of threads:                 1

  Performing in-core PK
  Using 812 doubles for integral storage.
  We computed 120 shell quartets total.
  Whereas there are 120 unique shell quartets.
  ==> DiskJK: Disk-Based J/K Matrices <==

    J tasked:                  Yes
    K tasked:                  Yes
    wK tasked:                  No
    Memory (MB):               375
    Schwarz Cutoff:          1E-12

    OpenMP threads:              1
  Minimum eigenvalue in the overlap matrix is 3.6319981111E-01.
  Using Symmetric Orthogonalization.

  SCF Guess: Superposition of Atomic Densities via on-the-fly atomic UHF.

  ==> Iterations <==

                        Total Energy        Delta E     RMS |[F,P]|

   @RHF iter   0:   -74.73206294757530   -7.47321e+01   3.06646e-01 
   @RHF iter   1:   -74.91286769918956   -1.80805e-01   5.30359e-02 
   @RHF iter   2:   -74.96240804705849   -4.95403e-02   9.56246e-03 DIIS
   @RHF iter   3:   -74.96414230274260   -1.73426e-03   3.56140e-03 DIIS
   @RHF iter   4:   -74.96455848848970   -4.16186e-04   3.50269e-04 DIIS
   @RHF iter   5:   -74.96456149717216   -3.00868e-06   3.61646e-05 DIIS
   @RHF iter   6:   -74.96456152237931   -2.52072e-08   6.04287e-07 DIIS
   @RHF iter   7:   -74.96456152238495   -5.64171e-12   1.43971e-08 DIIS
   @RHF iter   8:   -74.96456152238497   -1.42109e-14   1.06966e-10 DIIS

  ==> Post-Iterations <==

    Orbital Energies (a.u.)
    -----------------------

    Doubly Occupied:                                                      

       1A1   -20.253679     2A1    -1.258824     1B2    -0.595108  
       3A1    -0.460222     1B1    -0.393582  

    Virtual:                                                              

       4A1     0.579637     2B2     0.691033  

    Final Occupation by Irrep:
             A1    A2    B1    B2 
    DOCC [     3,    0,    1,    1 ]

  Energy converged.

  @RHF Final Energy:   -74.96456152238497 with 0.000000 0.000000 0.002000 perturbation

   => Energetics <=

    Nuclear Repulsion Energy =              8.9082777886460374
    One-Electron Energy =                -121.8228489148361717
    Two-Electron Energy =                  37.9500096038051709
    Total Energy =                        -74.9645615223849688



Properties will be evaluated at   0.000000,   0.000000,   0.000000 Bohr

Properties computed using the SCF density matrix

  Nuclear Dipole Moment: (a.u.)
     X:     0.0000      Y:    -0.0000      Z:     1.0581

  Electronic Dipole Moment: (a.u.)
     X:     0.0000      Y:     0.0000      Z:    -0.3909

  Dipole Moment: (a.u.)
     X:     0.0000      Y:    -0.0000      Z:     0.6673     Total:     0.6673

  Dipole Moment: (Debye)
     X:     0.0000      Y:    -0.0000      Z:     1.6960     Total:     1.6960


*** tstop() called on Shuhe.Wang at Mon May 28 19:12:46 2018
Module time:
	user time   =       0.27 seconds =       0.00 minutes
	system time =       0.02 seconds =       0.00 minutes
	total time  =          0 seconds =       0.00 minutes
Total time:
	user time   =       0.92 seconds =       0.02 minutes
	system time =       0.08 seconds =       0.00 minutes
	total time  =          1 seconds =       0.02 minutes
 MINTS: Wrapper to libmints.
   by Justin Turney

   Calculation information:
      Number of threads:                 1
      Number of atoms:                   3
      Number of AO shells:               5
      Number of SO shells:               4
      Number of primitives:             15
      Number of atomic orbitals:         7
      Number of basis functions:         7

      Number of irreps:                  4
      Integral cutoff                 0.00e+00
      Number of functions per irrep: [   4    0    1    2 ]

  Perturbing V by 0.002000 mu(z).
 OEINTS: Overlap, kinetic, potential, dipole, and quadrupole integrals
         stored in file 35.

      Computing two-electron integrals...done
      Computed 138 non-zero two-electron integrals.
        Stored in file 33.


Reading options from the DSRGPT2_PLUG block
Calling plugin dsrgpt2_plug.so.


	Presorting SO-basis two-electron integrals.
	Sorting File: SO Ints (nn|nn) nbuckets = 1
	Transforming the one-electron integrals and constructing Fock matrices
	Starting first half-transformation.
	Sorting half-transformed integrals.
	First half integral transformation complete.
	Starting second half-transformation.
	Two-electron integral transformation complete.


    ==> Spin orbital SR_DSRG_PT2 energy <==
    RHF total energy                  -74.964561522385
    SR_PT2 correlation energy           0.299756171126
    SR_DSRG_PT2 total energy          -74.664805351259

*** tstart() called on Shuhe.Wang
*** at Mon May 28 19:12:46 2018

   => Loading Basis Set <=

    Name: STO-3G
    Role: ORBITAL
    Keyword: BASIS
    atoms 1   entry O          line    81 file /Users/shuhe.wang/src/psi4_debug_install/share/psi4/basis/sto-3g.gbs 
    atoms 2-3 entry H          line    19 file /Users/shuhe.wang/src/psi4_debug_install/share/psi4/basis/sto-3g.gbs 


         ---------------------------------------------------------
                                   SCF
            by Justin Turney, Rob Parrish, Andy Simmonett
                             and Daniel Smith
                              RHF Reference
                        1 Threads,    500 MiB Core
         ---------------------------------------------------------

  ==> Geometry <==

    Molecular point group: c2v
    Full point group: C2v

    Geometry (in Angstrom), charge = 0, multiplicity = 1:

       Center              X                  Y                   Z               Mass       
    ------------   -----------------  -----------------  -----------------  -----------------
           O          0.000000000000     0.000000000000    -0.071143036192    15.994914619560
           H          0.000000000000    -0.758215806856     0.564545805801     1.007825032070
           H          0.000000000000     0.758215806856     0.564545805801     1.007825032070

  Running in c2v symmetry.

  Rotational constants: A =     23.30438  B =     14.54775  C =      8.95660 [cm^-1]
  Rotational constants: A = 698647.78356  B = 436130.43148  C = 268511.99226 [MHz]
  Nuclear repulsion =    8.904045200295871

  Charge       = 0
  Multiplicity = 1
  Electrons    = 10
  Nalpha       = 5
  Nbeta        = 5

  ==> Algorithm <==

  SCF Algorithm Type is PK.
  DIIS enabled.
  MOM disabled.
  Fractional occupation disabled.
  Guess Type is SAD.
  Energy threshold   = 1.00e-10
  Density threshold  = 1.00e-08
  Integral threshold = 0.00e+00

  ==> Primary Basis <==

  Basis Set: STO-3G
    Blend: STO-3G
    Number of shells: 5
    Number of basis function: 7
    Number of Cartesian functions: 7
    Spherical Harmonics?: true
    Max angular momentum: 1

  ==> Pre-Iterations <==

   -------------------------------------------------------
    Irrep   Nso     Nmo     Nalpha   Nbeta   Ndocc  Nsocc
   -------------------------------------------------------
     A1         4       4       0       0       0       0
     A2         0       0       0       0       0       0
     B1         1       1       0       0       0       0
     B2         2       2       0       0       0       0
   -------------------------------------------------------
    Total       7       7       5       5       5       0
   -------------------------------------------------------

  Perturbing V by -0.002000 mu(z).
  ==> Integral Setup <==

  Using in-core PK algorithm.
   Calculation information:
      Number of atoms:                   3
      Number of AO shells:               5
      Number of primitives:             15
      Number of atomic orbitals:         7
      Number of basis functions:         7

      Integral cutoff                 1.00e-12
      Number of threads:                 1

  Performing in-core PK
  Using 812 doubles for integral storage.
  We computed 120 shell quartets total.
  Whereas there are 120 unique shell quartets.
  ==> DiskJK: Disk-Based J/K Matrices <==

    J tasked:                  Yes
    K tasked:                  Yes
    wK tasked:                  No
    Memory (MB):               375
    Schwarz Cutoff:          1E-12

    OpenMP threads:              1
  Minimum eigenvalue in the overlap matrix is 3.6319981111E-01.
  Using Symmetric Orthogonalization.

  SCF Guess: Superposition of Atomic Densities via on-the-fly atomic UHF.

  ==> Iterations <==

                        Total Energy        Delta E     RMS |[F,P]|

   @RHF iter   0:   -74.73206294757533   -7.47321e+01   3.06802e-01 
   @RHF iter   1:   -74.91552936029093   -1.83466e-01   5.31664e-02 
   @RHF iter   2:   -74.96514311472870   -4.96138e-02   9.49559e-03 DIIS
   @RHF iter   3:   -74.96684417066271   -1.70106e-03   3.51768e-03 DIIS
   @RHF iter   4:   -74.96724811651730   -4.03946e-04   3.46065e-04 DIIS
   @RHF iter   5:   -74.96725105434524   -2.93783e-06   3.53064e-05 DIIS
   @RHF iter   6:   -74.96725107826681   -2.39216e-08   6.30551e-07 DIIS
   @RHF iter   7:   -74.96725107827309   -6.28120e-12   1.12477e-08 DIIS
   @RHF iter   8:   -74.96725107827308    1.42109e-14   1.10341e-10 DIIS

  ==> Post-Iterations <==

    Orbital Energies (a.u.)
    -----------------------

    Doubly Occupied:                                                      

       1A1   -20.249439     2A1    -1.256205     1B2    -0.592644  
       3A1    -0.459137     1B1    -0.391625  

    Virtual:                                                              

       4A1     0.583834     2B2     0.694352  

    Final Occupation by Irrep:
             A1    A2    B1    B2 
    DOCC [     3,    0,    1,    1 ]

  Energy converged.

  @RHF Final Energy:   -74.96725107827308 with 0.000000 0.000000 -0.002000 perturbation

   => Energetics <=

    Nuclear Repulsion Energy =              8.9040452002958705
    One-Electron Energy =                -121.8444934671699542
    Two-Electron Energy =                  37.9731971886009916
    Total Energy =                        -74.9672510782730939



Properties will be evaluated at   0.000000,   0.000000,   0.000000 Bohr

Properties computed using the SCF density matrix

  Nuclear Dipole Moment: (a.u.)
     X:     0.0000      Y:    -0.0000      Z:     1.0581

  Electronic Dipole Moment: (a.u.)
     X:     0.0000      Y:     0.0000      Z:    -0.3806

  Dipole Moment: (a.u.)
     X:     0.0000      Y:    -0.0000      Z:     0.6775     Total:     0.6775

  Dipole Moment: (Debye)
     X:     0.0000      Y:    -0.0000      Z:     1.7221     Total:     1.7221


*** tstop() called on Shuhe.Wang at Mon May 28 19:12:47 2018
Module time:
	user time   =       0.28 seconds =       0.00 minutes
	system time =       0.02 seconds =       0.00 minutes
	total time  =          1 seconds =       0.02 minutes
Total time:
	user time   =       1.24 seconds =       0.02 minutes
	system time =       0.11 seconds =       0.00 minutes
	total time  =          2 seconds =       0.03 minutes
 MINTS: Wrapper to libmints.
   by Justin Turney

   Calculation information:
      Number of threads:                 1
      Number of atoms:                   3
      Number of AO shells:               5
      Number of SO shells:               4
      Number of primitives:             15
      Number of atomic orbitals:         7
      Number of basis functions:         7

      Number of irreps:                  4
      Integral cutoff                 0.00e+00
      Number of functions per irrep: [   4    0    1    2 ]

  Perturbing V by -0.002000 mu(z).
 OEINTS: Overlap, kinetic, potential, dipole, and quadrupole integrals
         stored in file 35.

      Computing two-electron integrals...done
      Computed 138 non-zero two-electron integrals.
        Stored in file 33.


Reading options from the DSRGPT2_PLUG block
Calling plugin dsrgpt2_plug.so.


	Presorting SO-basis two-electron integrals.
	Sorting File: SO Ints (nn|nn) nbuckets = 1
	Transforming the one-electron integrals and constructing Fock matrices
	Starting first half-transformation.
	Sorting half-transformed integrals.
	First half integral transformation complete.
	Starting second half-transformation.
	Two-electron integral transformation complete.


    ==> Spin orbital SR_DSRG_PT2 energy <==
    RHF total energy                  -74.967251078273
    SR_PT2 correlation energy           0.306461084842
    SR_DSRG_PT2 total energy          -74.660789993431

*** tstart() called on Shuhe.Wang
*** at Mon May 28 19:12:47 2018

   => Loading Basis Set <=

    Name: STO-3G
    Role: ORBITAL
    Keyword: BASIS
    atoms 1   entry O          line    81 file /Users/shuhe.wang/src/psi4_debug_install/share/psi4/basis/sto-3g.gbs 
    atoms 2-3 entry H          line    19 file /Users/shuhe.wang/src/psi4_debug_install/share/psi4/basis/sto-3g.gbs 


         ---------------------------------------------------------
                                   SCF
            by Justin Turney, Rob Parrish, Andy Simmonett
                             and Daniel Smith
                              RHF Reference
                        1 Threads,    500 MiB Core
         ---------------------------------------------------------

  ==> Geometry <==

    Molecular point group: c2v
    Full point group: C2v

    Geometry (in Angstrom), charge = 0, multiplicity = 1:

       Center              X                  Y                   Z               Mass       
    ------------   -----------------  -----------------  -----------------  -----------------
           O          0.000000000000     0.000000000000    -0.071143036192    15.994914619560
           H          0.000000000000    -0.758215806856     0.564545805801     1.007825032070
           H          0.000000000000     0.758215806856     0.564545805801     1.007825032070

  Running in c2v symmetry.

  Rotational constants: A =     23.30438  B =     14.54775  C =      8.95660 [cm^-1]
  Rotational constants: A = 698647.78356  B = 436130.43148  C = 268511.99226 [MHz]
  Nuclear repulsion =    8.906161494470954

  Charge       = 0
  Multiplicity = 1
  Electrons    = 10
  Nalpha       = 5
  Nbeta        = 5

  ==> Algorithm <==

  SCF Algorithm Type is PK.
  DIIS enabled.
  MOM disabled.
  Fractional occupation disabled.
  Guess Type is SAD.
  Energy threshold   = 1.00e-10
  Density threshold  = 1.00e-06
  Integral threshold = 0.00e+00

  ==> Primary Basis <==

  Basis Set: STO-3G
    Blend: STO-3G
    Number of shells: 5
    Number of basis function: 7
    Number of Cartesian functions: 7
    Spherical Harmonics?: true
    Max angular momentum: 1

  ==> Pre-Iterations <==

   -------------------------------------------------------
    Irrep   Nso     Nmo     Nalpha   Nbeta   Ndocc  Nsocc
   -------------------------------------------------------
     A1         4       4       0       0       0       0
     A2         0       0       0       0       0       0
     B1         1       1       0       0       0       0
     B2         2       2       0       0       0       0
   -------------------------------------------------------
    Total       7       7       5       5       5       0
   -------------------------------------------------------

  ==> Integral Setup <==

  Using in-core PK algorithm.
   Calculation information:
      Number of atoms:                   3
      Number of AO shells:               5
      Number of primitives:             15
      Number of atomic orbitals:         7
      Number of basis functions:         7

      Integral cutoff                 1.00e-12
      Number of threads:                 1

  Performing in-core PK
  Using 812 doubles for integral storage.
  We computed 120 shell quartets total.
  Whereas there are 120 unique shell quartets.
  ==> DiskJK: Disk-Based J/K Matrices <==

    J tasked:                  Yes
    K tasked:                  Yes
    wK tasked:                  No
    Memory (MB):               375
    Schwarz Cutoff:          1E-12

    OpenMP threads:              1
  Minimum eigenvalue in the overlap matrix is 3.6319981111E-01.
  Using Symmetric Orthogonalization.

  SCF Guess: Superposition of Atomic Densities via on-the-fly atomic UHF.

  ==> Iterations <==

                        Total Energy        Delta E     RMS |[F,P]|

   @RHF iter   0:   -74.73206294757533   -7.47321e+01   3.06724e-01 
   @RHF iter   1:   -74.91419354236253   -1.82131e-01   5.31014e-02 
   @RHF iter   2:   -74.96377057348512   -4.95770e-02   9.52900e-03 DIIS
   @RHF iter   3:   -74.96548814926487   -1.71758e-03   3.53948e-03 DIIS
   @RHF iter   4:   -74.96589817271453   -4.10023e-04   3.48162e-04 DIIS
   @RHF iter   5:   -74.96590114580377   -2.97309e-06   3.57328e-05 DIIS
   @RHF iter   6:   -74.96590117035933   -2.45556e-08   6.18879e-07 DIIS
   @RHF iter   7:   -74.96590117036534   -6.01119e-12   1.29890e-08 DIIS

  ==> Post-Iterations <==

    Orbital Energies (a.u.)
    -----------------------

    Doubly Occupied:                                                      

       1A1   -20.251557     2A1    -1.257513     1B2    -0.593875  
       3A1    -0.459679     1B1    -0.392602  

    Virtual:                                                              

       4A1     0.581735     2B2     0.692693  

    Final Occupation by Irrep:
             A1    A2    B1    B2 
    DOCC [     3,    0,    1,    1 ]

  Energy converged.

  @RHF Final Energy:   -74.96590117036534

   => Energetics <=

    Nuclear Repulsion Energy =              8.9061614944709540
    One-Electron Energy =                -121.8336711764624027
    Two-Electron Energy =                  37.9616085116261033
    Total Energy =                        -74.9659011703653562



Properties will be evaluated at   0.000000,   0.000000,   0.000000 Bohr

Properties computed using the SCF density matrix

  Nuclear Dipole Moment: (a.u.)
     X:     0.0000      Y:    -0.0000      Z:     1.0581

  Electronic Dipole Moment: (a.u.)
     X:     0.0000      Y:     0.0000      Z:    -0.3858

  Dipole Moment: (a.u.)
     X:     0.0000      Y:    -0.0000      Z:     0.6724     Total:     0.6724

  Dipole Moment: (Debye)
     X:     0.0000      Y:    -0.0000      Z:     1.7090     Total:     1.7090


*** tstop() called on Shuhe.Wang at Mon May 28 19:12:47 2018
Module time:
	user time   =       0.26 seconds =       0.00 minutes
	system time =       0.01 seconds =       0.00 minutes
	total time  =          0 seconds =       0.00 minutes
Total time:
	user time   =       1.55 seconds =       0.03 minutes
	system time =       0.13 seconds =       0.00 minutes
	total time  =          2 seconds =       0.03 minutes


Properties will be evaluated at   0.000000,   0.000000,   0.000000 Bohr

Properties computed using the  density matrix


 Multipole Moments:

 ------------------------------------------------------------------------------------
     Multipole             Electric (a.u.)       Nuclear  (a.u.)        Total (a.u.)
 ------------------------------------------------------------------------------------

 L = 1.  Multiply by 2.5417462300 to convert to Debye
 Dipole X            :          0.0000000            0.0000000            0.0000000
 Dipole Y            :          0.0000000           -0.0000000           -0.0000000
 Dipole Z            :         -0.3857554            1.0581471            0.6723917

 --------------------------------------------------------------------------------
Perturbation strength =  0.0010, computed energy =   -74.6638007105
Perturbation strength = -0.0010, computed energy =   -74.6617927085
Perturbation strength =  0.0020, computed energy =   -74.6648053513
Perturbation strength = -0.0020, computed energy =   -74.6607899934
Total dipoles
3 Point formula: mu(z) =  -1.004001 ea0,  -2.551916 Debye
5 Point formula: mu(z) =  -1.004055 ea0,  -2.552053 Debye

*** Psi4 exiting successfully. Buy a developer a beer!
