
    -----------------------------------------------------------------------
          Psi4: An Open-Source Ab Initio Electronic Structure Package
                               Psi4 1.2a1.dev508 

                         Git: Rev {HEAD} 862f0c5 


    R. M. Parrish, L. A. Burns, D. G. A. Smith, A. C. Simmonett,
    A. E. DePrince III, E. G. Hohenstein, U. Bozkaya, A. Yu. Sokolov,
    R. Di Remigio, R. M. Richard, J. F. Gonthier, A. M. James,
    H. R. McAlexander, A. Kumar, M. Saitow, X. Wang, B. P. Pritchard,
    P. Verma, H. F. Schaefer III, K. Patkowski, R. A. King, E. F. Valeev,
    F. A. Evangelista, J. M. Turney, T. D. Crawford, and C. D. Sherrill,
    J. Chem. Theory Comput. 13(7) pp 3185--3197 (2017).
    (doi: 10.1021/acs.jctc.7b00174)

    -----------------------------------------------------------------------


    Psi4 started on: Friday, 25 May 2018 03:20PM

    Process ID:   8933
    PSIDATADIR: /Users/shuhe.wang/src/psi4_debug_install/share/psi4
    Memory:     500.0 MiB
    Threads:    1
    
  ==> Input File <==

--------------------------------------------------------------------------

# PYTHONPATH must include directory above plugin directory.
#     Define either externally or here, then import plugin.
sys.path.insert(0, './..')
import dsrgpt2_plug

molecule {
O
H 1 R
H 1 R 2 A

R = .9
A = 104.5
}

set {
  basis sto-3g
}

set dsrgpt2_plug {
  print 1
}

energy('dsrgpt2_plug')

dsrgpt2_plug.exampleFN()
--------------------------------------------------------------------------
/Users/shuhe.wang/src/plug/dsrgpt2_plug/dsrgpt2_plug.so loaded.

*** tstart() called on Shuhe.Wang
*** at Fri May 25 15:20:16 2018

   => Loading Basis Set <=

    Name: STO-3G
    Role: ORBITAL
    Keyword: BASIS
    atoms 1   entry O          line    81 file /Users/shuhe.wang/src/psi4_debug_install/share/psi4/basis/sto-3g.gbs 
    atoms 2-3 entry H          line    19 file /Users/shuhe.wang/src/psi4_debug_install/share/psi4/basis/sto-3g.gbs 

    There are an even number of electrons - assuming singlet.
    Specify the multiplicity in the molecule input block.


         ---------------------------------------------------------
                                   SCF
            by Justin Turney, Rob Parrish, Andy Simmonett
                             and Daniel Smith
                              RHF Reference
                        1 Threads,    500 MiB Core
         ---------------------------------------------------------

  ==> Geometry <==

    Molecular point group: c2v
    Full point group: C2v

    Geometry (in Angstrom), charge = 0, multiplicity = 1:

       Center              X                  Y                   Z               Mass       
    ------------   -----------------  -----------------  -----------------  -----------------
           O          0.000000000000     0.000000000000    -0.061664597379    15.994914619560
           H          0.000000000000    -0.711620616369     0.489330954652     1.007825032070
           H          0.000000000000     0.711620616369     0.489330954652     1.007825032070

  Running in c2v symmetry.

  Rotational constants: A =     31.01920  B =     16.51522  C =     10.77722 [cm^-1]
  Rotational constants: A = 929932.18007  B = 495113.78280  C = 323092.90466 [MHz]
  Nuclear repulsion =    9.779406144413407

  Charge       = 0
  Multiplicity = 1
  Electrons    = 10
  Nalpha       = 5
  Nbeta        = 5

  ==> Algorithm <==

  SCF Algorithm Type is PK.
  DIIS enabled.
  MOM disabled.
  Fractional occupation disabled.
  Guess Type is SAD.
  Energy threshold   = 1.00e-08
  Density threshold  = 1.00e-08
  Integral threshold = 0.00e+00

  ==> Primary Basis <==

  Basis Set: STO-3G
    Blend: STO-3G
    Number of shells: 5
    Number of basis function: 7
    Number of Cartesian functions: 7
    Spherical Harmonics?: true
    Max angular momentum: 1

  ==> Pre-Iterations <==

   -------------------------------------------------------
    Irrep   Nso     Nmo     Nalpha   Nbeta   Ndocc  Nsocc
   -------------------------------------------------------
     A1         4       4       0       0       0       0
     A2         0       0       0       0       0       0
     B1         1       1       0       0       0       0
     B2         2       2       0       0       0       0
   -------------------------------------------------------
    Total       7       7       5       5       5       0
   -------------------------------------------------------

  ==> Integral Setup <==

  Using in-core PK algorithm.
   Calculation information:
      Number of atoms:                   3
      Number of AO shells:               5
      Number of primitives:             15
      Number of atomic orbitals:         7
      Number of basis functions:         7

      Integral cutoff                 1.00e-12
      Number of threads:                 1

  Performing in-core PK
  Using 812 doubles for integral storage.
  We computed 120 shell quartets total.
  Whereas there are 120 unique shell quartets.
  ==> DiskJK: Disk-Based J/K Matrices <==

    J tasked:                  Yes
    K tasked:                  Yes
    wK tasked:                  No
    Memory (MB):               375
    Schwarz Cutoff:          1E-12

    OpenMP threads:              1
  Minimum eigenvalue in the overlap matrix is 3.0451397022E-01.
  Using Symmetric Orthogonalization.

  SCF Guess: Superposition of Atomic Densities via on-the-fly atomic UHF.

  ==> Iterations <==

                        Total Energy        Delta E     RMS |[F,P]|

   @RHF iter   0:   -74.96110675442274   -7.49611e+01   3.73940e-01 
   @RHF iter   1:   -74.90824916986152    5.28576e-02   4.69527e-02 
   @RHF iter   2:   -74.94370393731218   -3.54548e-02   7.25560e-03 DIIS
   @RHF iter   3:   -74.94479975435439   -1.09582e-03   2.75717e-03 DIIS
   @RHF iter   4:   -74.94501964868840   -2.19894e-04   2.44569e-04 DIIS
   @RHF iter   5:   -74.94502100736264   -1.35867e-06   1.39726e-05 DIIS
   @RHF iter   6:   -74.94502101052571   -3.16307e-09   8.65475e-07 DIIS
   @RHF iter   7:   -74.94502101053813   -1.24203e-11   1.68548e-08 DIIS
   @RHF iter   8:   -74.94502101053811    1.42109e-14   4.91513e-11 DIIS

  ==> Post-Iterations <==

    Orbital Energies (a.u.)
    -----------------------

    Doubly Occupied:                                                      

       1A1   -20.236192     2A1    -1.300480     1B2    -0.649309  
       3A1    -0.460194     1B1    -0.396298  

    Virtual:                                                              

       4A1     0.664827     2B2     0.813314  

    Final Occupation by Irrep:
             A1    A2    B1    B2 
    DOCC [     3,    0,    1,    1 ]

  Energy converged.

  @RHF Final Energy:   -74.94502101053811

   => Energetics <=

    Nuclear Repulsion Energy =              9.7794061444134073
    One-Electron Energy =                -123.3639077692179029
    Two-Electron Energy =                  38.6394806142663754
    Total Energy =                        -74.9450210105381132



Properties will be evaluated at   0.000000,   0.000000,   0.000000 Bohr

Properties computed using the SCF density matrix

  Nuclear Dipole Moment: (a.u.)
     X:     0.0000      Y:     0.0000      Z:     0.9172

  Electronic Dipole Moment: (a.u.)
     X:     0.0000      Y:     0.0000      Z:    -0.2095

  Dipole Moment: (a.u.)
     X:     0.0000      Y:     0.0000      Z:     0.7076     Total:     0.7076

  Dipole Moment: (Debye)
     X:     0.0000      Y:     0.0000      Z:     1.7986     Total:     1.7986


*** tstop() called on Shuhe.Wang at Fri May 25 15:20:17 2018
Module time:
	user time   =       0.28 seconds =       0.00 minutes
	system time =       0.02 seconds =       0.00 minutes
	total time  =          1 seconds =       0.02 minutes
Total time:
	user time   =       0.28 seconds =       0.00 minutes
	system time =       0.02 seconds =       0.00 minutes
	total time  =          1 seconds =       0.02 minutes
 MINTS: Wrapper to libmints.
   by Justin Turney

   Calculation information:
      Number of threads:                 1
      Number of atoms:                   3
      Number of AO shells:               5
      Number of SO shells:               4
      Number of primitives:             15
      Number of atomic orbitals:         7
      Number of basis functions:         7

      Number of irreps:                  4
      Integral cutoff                 0.00e+00
      Number of functions per irrep: [   4    0    1    2 ]

 OEINTS: Overlap, kinetic, potential, dipole, and quadrupole integrals
         stored in file 35.

      Computing two-electron integrals...done
      Computed 138 non-zero two-electron integrals.
        Stored in file 33.


Reading options from the DSRGPT2_PLUG block
Calling plugin dsrgpt2_plug.so.


	Presorting SO-basis two-electron integrals.
	Sorting File: SO Ints (nn|nn) nbuckets = 1
	Transforming the one-electron integrals and constructing Fock matrices
	Starting first half-transformation.
	Sorting half-transformed integrals.
	First half integral transformation complete.
	Starting second half-transformation.
	Two-electron integral transformation complete.


    ==> Spin orbital SR_DSRG_PT2 energy <==
    RHF total energy                  -74.945021010538
    SR_PT2 correlation energy           0.060422179942
    SR_DSRG_PT2 total energy          -74.884598830596

*** Psi4 exiting successfully. Buy a developer a beer!
